HEADER
"PSFversion" "1.00"
"voutv" "\:voutv"
