HEADER
"PSFversion" "1.00"
"I0n" "NAND"
"I2n" "INV"
"Av" ":1v"
"Bv" ":2v"
"GNDv" ":3v"
"OUTv" ":4v"
"VDDv" ":5v"
