HEADER
"PSFversion" "1.00"
"I1n I0n" "INV_post"
"Gv" ":1v"
"GNDv" ":2v"
"Gnewv" ":3v"
"VDDv" ":4v"
