HEADER
"PSFversion" "1.00"
"M0n" "NCSU_Devices_FreePDK45_PMOS_VTG_spectre"
"M1n" "NCSU_Devices_FreePDK45_NMOS_VTG_spectre"
"GNDv" ":1v"
"INv" ":2v"
"OUTv" ":3v"
"VDDv" ":4v"
