HEADER
"PSFversion" "1.00"
"M5n M4n M0n" "NCSU_Devices_FreePDK45_NMOS_VTG_spectre"
"M2n M3n M1n" "NCSU_Devices_FreePDK45_PMOS_VTG_spectre"
"Av" ":1v"
"Bv" ":2v"
"GNDv" ":3v"
"OUTv" ":4v"
"VDDv" ":5v"
