HEADER
"PSFversion" "1.00"
"I76n I75n I74n I73n I72n I71n I68n I67n I66n I65n I64n I63n I60n I59n I58n I57n I56n I55n I52n I51n I50n I48n I47n I46n I45n I44n I39n I38n I35n I34n I31n I30n I25n I24n" "Black_cell"
"I42n I41n I37n I97n I29n I28n I23n I3n" "Buffer_cell"
"I77n I70n I69n I62n I61n I54n I53n I49n I43n I40n I36n I32n I27n I26n I22n" "Grey_cell"
"I93n I92n I91n I90n I89n I88n I87n I86n I85n I84n I83n I82n I81n I80n I79n I78n" "Postproc_cell"
"I21n I20n I19n I18n I17n I16n I15n I14n I13n I12n I11n I10n I9n I8n I7n I6n" "Preproc_cell"
"I95n" "OR"
"I96n" "AND"
"I114n I113n I112n I111n I110n I109n I108n I107n I106n I105n I104n I103n I102n I101n I100n I99n I98n" "Buffer_cell_post"
"A<0>v" ":1v"
"A<1>v" ":2v"
"A<2>v" ":3v"
"A<3>v" ":4v"
"A<4>v" ":5v"
"A<5>v" ":6v"
"A<6>v" ":7v"
"A<7>v" ":8v"
"A<8>v" ":9v"
"A<9>v" ":10v"
"A<10>v" ":11v"
"A<11>v" ":12v"
"A<12>v" ":13v"
"A<13>v" ":14v"
"A<14>v" ":15v"
"A<15>v" ":16v"
"B<0>v" ":17v"
"B<1>v" ":18v"
"B<2>v" ":19v"
"B<3>v" ":20v"
"B<4>v" ":21v"
"B<5>v" ":22v"
"B<6>v" ":23v"
"B<7>v" ":24v"
"B<8>v" ":25v"
"B<9>v" ":26v"
"B<10>v" ":27v"
"B<11>v" ":28v"
"B<12>v" ":29v"
"B<13>v" ":30v"
"B<14>v" ":31v"
"B<15>v" ":32v"
"CINv" ":33v"
"COUTv" ":34v"
"GNDv" ":35v"
"S<0>v" ":36v"
"S<1>v" ":37v"
"S<2>v" ":38v"
"S<3>v" ":39v"
"S<4>v" ":40v"
"S<5>v" ":41v"
"S<6>v" ":42v"
"S<7>v" ":43v"
"S<8>v" ":44v"
"S<9>v" ":45v"
"S<10>v" ":46v"
"S<11>v" ":47v"
"S<12>v" ":48v"
"S<13>v" ":49v"
"S<14>v" ":50v"
"S<15>v" ":51v"
"VDDv" ":52v"
