HEADER
"PSFversion" "1.00"
"I12n" "project_testR_OG2"
"I72n I71n I55n I56n I69n I68n I67n I66n I65n I64n I63n I62n I61n I60n I59n I58n I57n I73n I74n I75n I76n I77n I78n I79n I80n I81n I82n I83n I84n I85n I86n I87n CIN_Outn" "5LIH0_rand_bit_stream_veriloga"
"C19n C18n C17n C16n C15n C14n C12n C11n C7n C6n C5n C4n C3n C2n C1n C0n C13n" "analogLib_cap_spectre"
"V0n" "analogLib_vdc_spectre"
