HEADER
"PSFversion" "1.00"
"__NEXT_FILE__" "project_testK_test"
