HEADER
"PSFversion" "1.00"
"design" "(\"5LIH0\" \"project_testK_test\" \"schematic\" \"\")"
"simulator" "spectre"
"temperature" "90.0"
"host" ""
"date" "Jan 10 14:26:19 2022"
"title" ""
"analysisList" "()"
END
