HEADER
"PSFversion" "1.00"
"simulator" "spectre"
"version" "15.1.0.627.isr12"
"date" "2:26:20 PM, Mon Jan 10, 2022"
"design" "// Generated for: spectre"
"analysis type" "info.subckts"
"analysis name" "subckts"
"analysis description" "Circuit Information"
"xVecSorted" "unknown"
"tolerance.relative" 0.00100000
TYPE
"subckt" STRUCT(
"subckt_params" STRING *
"subckt_terminals" STRING *
) PROP(
"key" "sub"
)
VALUE
"NAND" "subckt" (
""
"A B GND OUT VDD"
)
"Postproc_cell" "subckt" (
""
"G GND P S VDD"
)
"Buffer_cell" "subckt" (
""
"G GND Gnew VDD"
)
"Preproc_cell" "subckt" (
""
"A B G GND VDD p"
)
"INV" "subckt" (
""
"GND IN OUT VDD"
)
"AND" "subckt" (
""
"A B GND OUT VDD"
)
"Grey_cell" "subckt" (
""
"G GND Gnew Gold P VDD"
)
"Black_cell" "subckt" (
""
"G GND Gnew Gold P Pnew Pold VDD"
)
"project_testR_OG2" "subckt" (
""
"A<0> A<1> A<2> A<3> A<4> A<5> A<6> A<7> A<8> A<9> A<10> A<11> A<12> A<13> A<14> A<15> B<0> B<1> B<2> B<3> B<4> B<5> B<6> B<7> B<8> B<9> B<10> B<11> B<12> B<13> B<14> B<15> CIN COUT GND S<0> S<1> S<2> S<3> S<4> S<5> S<6> S<7> S<8> S<9> S<10> S<11> S<12> S<13> S<14> S<15> VDD"
)
"INV_post" "subckt" (
""
"GND IN OUT VDD"
)
"Buffer_cell_post" "subckt" (
""
"G GND Gnew VDD"
)
"XOR" "subckt" (
""
"A B GND OUT VDD"
)
"OR" "subckt" (
""
"A B GND OUT VDD"
)
END
