HEADER
"PSFversion" "1.00"
"Time Stamp" "Jan 10 14:26:19 2022"
TYPE
"variable" STRUCT(
"value" FLOAT DOUBLE
) PROP( "key" "element" )
VALUE
"temp" "variable" ( 90.0 ) PROP( )
END
